<?xml version="1.0"?>
<VTKFile type="UnstructuredGrid"  version="0.1"  >
<UnstructuredGrid>
<Piece  NumberOfPoints="961" NumberOfCells="1800">
<Points>
<DataArray  type="Float64"  NumberOfComponents="3"  format="ascii">0 0 0  0.03333333333333333 0 0  0.06666666666666667 0 0  0.1 0 0  0.1333333333333333 0 0  0.1666666666666667 0 0  0.2 0 0  0.2333333333333333 0 0  0.2666666666666667 0 0  0.3 0 0  0.3333333333333333 0 0  0.3666666666666666 0 0  0.4 0 0  0.4333333333333333 0 0  0.4666666666666667 0 0  0.5 0 0  0.5333333333333333 0 0  0.5666666666666667 0 0  0.6 0 0  0.6333333333333333 0 0  0.6666666666666666 0 0  0.7 0 0  0.7333333333333333 0 0  0.7666666666666667 0 0  0.8 0 0  0.8333333333333334 0 0  0.8666666666666667 0 0  0.9 0 0  0.9333333333333333 0 0  0.9666666666666667 0 0  1 0 0  0 0.03333333333333333 0  0.03333333333333333 0.03333333333333333 0  0.06666666666666667 0.03333333333333333 0  0.1 0.03333333333333333 0  0.1333333333333333 0.03333333333333333 0  0.1666666666666667 0.03333333333333333 0  0.2 0.03333333333333333 0  0.2333333333333333 0.03333333333333333 0  0.2666666666666667 0.03333333333333333 0  0.3 0.03333333333333333 0  0.3333333333333333 0.03333333333333333 0  0.3666666666666666 0.03333333333333333 0  0.4 0.03333333333333333 0  0.4333333333333333 0.03333333333333333 0  0.4666666666666667 0.03333333333333333 0  0.5 0.03333333333333333 0  0.5333333333333333 0.03333333333333333 0  0.5666666666666667 0.03333333333333333 0  0.6 0.03333333333333333 0  0.6333333333333333 0.03333333333333333 0  0.6666666666666666 0.03333333333333333 0  0.7 0.03333333333333333 0  0.7333333333333333 0.03333333333333333 0  0.7666666666666667 0.03333333333333333 0  0.8 0.03333333333333333 0  0.8333333333333334 0.03333333333333333 0  0.8666666666666667 0.03333333333333333 0  0.9 0.03333333333333333 0  0.9333333333333333 0.03333333333333333 0  0.9666666666666667 0.03333333333333333 0  1 0.03333333333333333 0  0 0.06666666666666667 0  0.03333333333333333 0.06666666666666667 0  0.06666666666666667 0.06666666666666667 0  0.1 0.06666666666666667 0  0.1333333333333333 0.06666666666666667 0  0.1666666666666667 0.06666666666666667 0  0.2 0.06666666666666667 0  0.2333333333333333 0.06666666666666667 0  0.2666666666666667 0.06666666666666667 0  0.3 0.06666666666666667 0  0.3333333333333333 0.06666666666666667 0  0.3666666666666666 0.06666666666666667 0  0.4 0.06666666666666667 0  0.4333333333333333 0.06666666666666667 0  0.4666666666666667 0.06666666666666667 0  0.5 0.06666666666666667 0  0.5333333333333333 0.06666666666666667 0  0.5666666666666667 0.06666666666666667 0  0.6 0.06666666666666667 0  0.6333333333333333 0.06666666666666667 0  0.6666666666666666 0.06666666666666667 0  0.7 0.06666666666666667 0  0.7333333333333333 0.06666666666666667 0  0.7666666666666667 0.06666666666666667 0  0.8 0.06666666666666667 0  0.8333333333333334 0.06666666666666667 0  0.8666666666666667 0.06666666666666667 0  0.9 0.06666666666666667 0  0.9333333333333333 0.06666666666666667 0  0.9666666666666667 0.06666666666666667 0  1 0.06666666666666667 0  0 0.1 0  0.03333333333333333 0.1 0  0.06666666666666667 0.1 0  0.1 0.1 0  0.1333333333333333 0.1 0  0.1666666666666667 0.1 0  0.2 0.1 0  0.2333333333333333 0.1 0  0.2666666666666667 0.1 0  0.3 0.1 0  0.3333333333333333 0.1 0  0.3666666666666666 0.1 0  0.4 0.1 0  0.4333333333333333 0.1 0  0.4666666666666667 0.1 0  0.5 0.1 0  0.5333333333333333 0.1 0  0.5666666666666667 0.1 0  0.6 0.1 0  0.6333333333333333 0.1 0  0.6666666666666666 0.1 0  0.7 0.1 0  0.7333333333333333 0.1 0  0.7666666666666667 0.1 0  0.8 0.1 0  0.8333333333333334 0.1 0  0.8666666666666667 0.1 0  0.9 0.1 0  0.9333333333333333 0.1 0  0.9666666666666667 0.1 0  1 0.1 0  0 0.1333333333333333 0  0.03333333333333333 0.1333333333333333 0  0.06666666666666667 0.1333333333333333 0  0.1 0.1333333333333333 0  0.1333333333333333 0.1333333333333333 0  0.1666666666666667 0.1333333333333333 0  0.2 0.1333333333333333 0  0.2333333333333333 0.1333333333333333 0  0.2666666666666667 0.1333333333333333 0  0.3 0.1333333333333333 0  0.3333333333333333 0.1333333333333333 0  0.3666666666666666 0.1333333333333333 0  0.4 0.1333333333333333 0  0.4333333333333333 0.1333333333333333 0  0.4666666666666667 0.1333333333333333 0  0.5 0.1333333333333333 0  0.5333333333333333 0.1333333333333333 0  0.5666666666666667 0.1333333333333333 0  0.6 0.1333333333333333 0  0.6333333333333333 0.1333333333333333 0  0.6666666666666666 0.1333333333333333 0  0.7 0.1333333333333333 0  0.7333333333333333 0.1333333333333333 0  0.7666666666666667 0.1333333333333333 0  0.8 0.1333333333333333 0  0.8333333333333334 0.1333333333333333 0  0.8666666666666667 0.1333333333333333 0  0.9 0.1333333333333333 0  0.9333333333333333 0.1333333333333333 0  0.9666666666666667 0.1333333333333333 0  1 0.1333333333333333 0  0 0.1666666666666667 0  0.03333333333333333 0.1666666666666667 0  0.06666666666666667 0.1666666666666667 0  0.1 0.1666666666666667 0  0.1333333333333333 0.1666666666666667 0  0.1666666666666667 0.1666666666666667 0  0.2 0.1666666666666667 0  0.2333333333333333 0.1666666666666667 0  0.2666666666666667 0.1666666666666667 0  0.3 0.1666666666666667 0  0.3333333333333333 0.1666666666666667 0  0.3666666666666666 0.1666666666666667 0  0.4 0.1666666666666667 0  0.4333333333333333 0.1666666666666667 0  0.4666666666666667 0.1666666666666667 0  0.5 0.1666666666666667 0  0.5333333333333333 0.1666666666666667 0  0.5666666666666667 0.1666666666666667 0  0.6 0.1666666666666667 0  0.6333333333333333 0.1666666666666667 0  0.6666666666666666 0.1666666666666667 0  0.7 0.1666666666666667 0  0.7333333333333333 0.1666666666666667 0  0.7666666666666667 0.1666666666666667 0  0.8 0.1666666666666667 0  0.8333333333333334 0.1666666666666667 0  0.8666666666666667 0.1666666666666667 0  0.9 0.1666666666666667 0  0.9333333333333333 0.1666666666666667 0  0.9666666666666667 0.1666666666666667 0  1 0.1666666666666667 0  0 0.2 0  0.03333333333333333 0.2 0  0.06666666666666667 0.2 0  0.1 0.2 0  0.1333333333333333 0.2 0  0.1666666666666667 0.2 0  0.2 0.2 0  0.2333333333333333 0.2 0  0.2666666666666667 0.2 0  0.3 0.2 0  0.3333333333333333 0.2 0  0.3666666666666666 0.2 0  0.4 0.2 0  0.4333333333333333 0.2 0  0.4666666666666667 0.2 0  0.5 0.2 0  0.5333333333333333 0.2 0  0.5666666666666667 0.2 0  0.6 0.2 0  0.6333333333333333 0.2 0  0.6666666666666666 0.2 0  0.7 0.2 0  0.7333333333333333 0.2 0  0.7666666666666667 0.2 0  0.8 0.2 0  0.8333333333333334 0.2 0  0.8666666666666667 0.2 0  0.9 0.2 0  0.9333333333333333 0.2 0  0.9666666666666667 0.2 0  1 0.2 0  0 0.2333333333333333 0  0.03333333333333333 0.2333333333333333 0  0.06666666666666667 0.2333333333333333 0  0.1 0.2333333333333333 0  0.1333333333333333 0.2333333333333333 0  0.1666666666666667 0.2333333333333333 0  0.2 0.2333333333333333 0  0.2333333333333333 0.2333333333333333 0  0.2666666666666667 0.2333333333333333 0  0.3 0.2333333333333333 0  0.3333333333333333 0.2333333333333333 0  0.3666666666666666 0.2333333333333333 0  0.4 0.2333333333333333 0  0.4333333333333333 0.2333333333333333 0  0.4666666666666667 0.2333333333333333 0  0.5 0.2333333333333333 0  0.5333333333333333 0.2333333333333333 0  0.5666666666666667 0.2333333333333333 0  0.6 0.2333333333333333 0  0.6333333333333333 0.2333333333333333 0  0.6666666666666666 0.2333333333333333 0  0.7 0.2333333333333333 0  0.7333333333333333 0.2333333333333333 0  0.7666666666666667 0.2333333333333333 0  0.8 0.2333333333333333 0  0.8333333333333334 0.2333333333333333 0  0.8666666666666667 0.2333333333333333 0  0.9 0.2333333333333333 0  0.9333333333333333 0.2333333333333333 0  0.9666666666666667 0.2333333333333333 0  1 0.2333333333333333 0  0 0.2666666666666667 0  0.03333333333333333 0.2666666666666667 0  0.06666666666666667 0.2666666666666667 0  0.1 0.2666666666666667 0  0.1333333333333333 0.2666666666666667 0  0.1666666666666667 0.2666666666666667 0  0.2 0.2666666666666667 0  0.2333333333333333 0.2666666666666667 0  0.2666666666666667 0.2666666666666667 0  0.3 0.2666666666666667 0  0.3333333333333333 0.2666666666666667 0  0.3666666666666666 0.2666666666666667 0  0.4 0.2666666666666667 0  0.4333333333333333 0.2666666666666667 0  0.4666666666666667 0.2666666666666667 0  0.5 0.2666666666666667 0  0.5333333333333333 0.2666666666666667 0  0.5666666666666667 0.2666666666666667 0  0.6 0.2666666666666667 0  0.6333333333333333 0.2666666666666667 0  0.6666666666666666 0.2666666666666667 0  0.7 0.2666666666666667 0  0.7333333333333333 0.2666666666666667 0  0.7666666666666667 0.2666666666666667 0  0.8 0.2666666666666667 0  0.8333333333333334 0.2666666666666667 0  0.8666666666666667 0.2666666666666667 0  0.9 0.2666666666666667 0  0.9333333333333333 0.2666666666666667 0  0.9666666666666667 0.2666666666666667 0  1 0.2666666666666667 0  0 0.3 0  0.03333333333333333 0.3 0  0.06666666666666667 0.3 0  0.1 0.3 0  0.1333333333333333 0.3 0  0.1666666666666667 0.3 0  0.2 0.3 0  0.2333333333333333 0.3 0  0.2666666666666667 0.3 0  0.3 0.3 0  0.3333333333333333 0.3 0  0.3666666666666666 0.3 0  0.4 0.3 0  0.4333333333333333 0.3 0  0.4666666666666667 0.3 0  0.5 0.3 0  0.5333333333333333 0.3 0  0.5666666666666667 0.3 0  0.6 0.3 0  0.6333333333333333 0.3 0  0.6666666666666666 0.3 0  0.7 0.3 0  0.7333333333333333 0.3 0  0.7666666666666667 0.3 0  0.8 0.3 0  0.8333333333333334 0.3 0  0.8666666666666667 0.3 0  0.9 0.3 0  0.9333333333333333 0.3 0  0.9666666666666667 0.3 0  1 0.3 0  0 0.3333333333333333 0  0.03333333333333333 0.3333333333333333 0  0.06666666666666667 0.3333333333333333 0  0.1 0.3333333333333333 0  0.1333333333333333 0.3333333333333333 0  0.1666666666666667 0.3333333333333333 0  0.2 0.3333333333333333 0  0.2333333333333333 0.3333333333333333 0  0.2666666666666667 0.3333333333333333 0  0.3 0.3333333333333333 0  0.3333333333333333 0.3333333333333333 0  0.3666666666666666 0.3333333333333333 0  0.4 0.3333333333333333 0  0.4333333333333333 0.3333333333333333 0  0.4666666666666667 0.3333333333333333 0  0.5 0.3333333333333333 0  0.5333333333333333 0.33333333333333
[...]
<PointData  Scalars="f_8"> 
<DataArray  type="Float64"  Name="f_8"  format="ascii">1.0000000000000000e+00  1.0011111111111111e+00  1.0044444444444445e+00  1.0100000000000000e+00  1.0177777777777777e+00  1.0277777777777777e+00  1.0400000000000000e+00  1.0544444444444445e+00  1.0711111111111111e+00  1.0900000000000001e+00  1.1111111111111112e+00  1.1344444444444444e+00  1.1600000000000001e+00  1.1877777777777778e+00  1.2177777777777778e+00  1.2500000000000000e+00  1.2844444444444445e+00  1.3211111111111111e+00  1.3599999999999999e+00  1.4011111111111112e+00  1.4444444444444444e+00  1.4900000000000000e+00  1.5377777777777777e+00  1.5877777777777777e+00  1.6400000000000001e+00  1.6944444444444446e+00  1.7511111111111113e+00  1.8100000000000001e+00  1.8711111111111112e+00  1.9344444444444444e+00  2.0000000000000000e+00  1.0022222222222221e+00  1.0033333333333327e+00  1.0066666666666659e+00  1.0122222222222212e+00  1.0199999999999989e+00  1.0299999999999987e+00  1.0422222222222211e+00  1.0566666666666655e+00  1.0733333333333319e+00  1.0922222222222207e+00  1.1133333333333313e+00  1.1366666666666645e+00  1.1622222222222203e+00  1.1899999999999982e+00  1.2199999999999989e+00  1.2522222222222208e+00  1.2866666666666651e+00  1.3233333333333315e+00  1.3622222222222204e+00  1.4033333333333313e+00  1.4466666666666648e+00  1.4922222222222201e+00  1.5399999999999976e+00  1.5899999999999981e+00  1.6422222222222207e+00  1.6966666666666657e+00  1.7533333333333323e+00  1.8122222222222206e+00  1.8733333333333322e+00  1.9366666666666661e+00  2.0022222222222221e+00  1.0088888888888889e+00  1.0099999999999987e+00  1.0133333333333319e+00  1.0188888888888874e+00  1.0266666666666648e+00  1.0366666666666642e+00  1.0488888888888863e+00  1.0633333333333306e+00  1.0799999999999972e+00  1.0988888888888857e+00  1.1199999999999966e+00  1.1433333333333293e+00  1.1688888888888851e+00  1.1966666666666630e+00  1.2266666666666632e+00  1.2588888888888856e+00  1.2933333333333299e+00  1.3299999999999963e+00  1.3688888888888853e+00  1.4099999999999964e+00  1.4533333333333298e+00  1.4988888888888854e+00  1.5466666666666629e+00  1.5966666666666633e+00  1.6488888888888860e+00  1.7033333333333307e+00  1.7599999999999976e+00  1.8188888888888868e+00  1.8799999999999983e+00  1.9433333333333325e+00  2.0088888888888889e+00  1.0200000000000000e+00  1.0211111111111100e+00  1.0244444444444429e+00  1.0299999999999978e+00  1.0377777777777748e+00  1.0477777777777741e+00  1.0599999999999961e+00  1.0744444444444401e+00  1.0911111111111065e+00  1.1099999999999950e+00  1.1311111111111056e+00  1.1544444444444386e+00  1.1799999999999939e+00  1.2077777777777718e+00  1.2377777777777721e+00  1.2699999999999942e+00  1.3044444444444385e+00  1.3411111111111054e+00  1.3799999999999946e+00  1.4211111111111057e+00  1.4644444444444389e+00  1.5099999999999949e+00  1.5577777777777717e+00  1.6077777777777726e+00  1.6599999999999950e+00  1.7144444444444402e+00  1.7711111111111073e+00  1.8299999999999965e+00  1.8911111111111083e+00  1.9544444444444427e+00  2.0200000000000000e+00  1.0355555555555556e+00  1.0366666666666655e+00  1.0399999999999980e+00  1.0455555555555522e+00  1.0533333333333295e+00  1.0633333333333286e+00  1.0755555555555507e+00  1.0899999999999945e+00  1.1066666666666607e+00  1.1255555555555492e+00  1.1466666666666594e+00  1.1699999999999922e+00  1.1955555555555477e+00  1.2233333333333252e+00  1.2533333333333254e+00  1.2855555555555476e+00  1.3199999999999921e+00  1.3566666666666582e+00  1.3955555555555479e+00  1.4366666666666592e+00  1.4799999999999929e+00  1.5255555555555487e+00  1.5733333333333266e+00  1.6233333333333271e+00  1.6755555555555495e+00  1.7299999999999942e+00  1.7866666666666617e+00  1.8455555555555510e+00  1.9066666666666634e+00  1.9699999999999982e+00  2.0355555555555553e+00  1.0555555555555556e+00  1.0566666666666655e+00  1.0599999999999978e+00  1.0655555555555516e+00  1.0733333333333286e+00  1.0833333333333282e+00  1.0955555555555498e+00  1.1099999999999934e+00  1.1266666666666594e+00  1.1455555555555472e+00  1.1666666666666572e+00  1.1899999999999904e+00  1.2155555555555457e+00  1.2433333333333232e+00  1.2733333333333237e+00  1.3055555555555456e+00  1.3399999999999903e+00  1.3766666666666567e+00  1.4155555555555459e+00  1.4566666666666572e+00  1.4999999999999911e+00  1.5455555555555465e+00  1.5933333333333253e+00  1.6433333333333255e+00  1.6955555555555477e+00  1.7499999999999925e+00  1.8066666666666600e+00  1.8655555555555494e+00  1.9266666666666621e+00  1.9899999999999978e+00  2.0555555555555554e+00  1.0800000000000001e+00  1.0811111111111098e+00  1.0844444444444421e+00  1.0899999999999956e+00  1.0977777777777726e+00  1.1077777777777718e+00  1.1199999999999934e+00  1.1344444444444368e+00  1.1511111111111025e+00  1.1699999999999904e+00  1.1911111111111006e+00  1.2144444444444333e+00  1.2399999999999887e+00  1.2677777777777661e+00  1.2977777777777664e+00  1.3299999999999885e+00  1.3644444444444330e+00  1.4011111111110999e+00  1.4399999999999891e+00  1.4811111111111004e+00  1.5244444444444341e+00  1.5699999999999898e+00  1.6177777777777684e+00  1.6677777777777694e+00  1.7199999999999918e+00  1.7744444444444363e+00  1.8311111111111040e+00  1.8899999999999939e+00  1.9511111111111066e+00  2.0144444444444418e+00  2.0800000000000001e+00  1.1088888888888888e+00  1.1099999999999983e+00  1.1133333333333302e+00  1.1188888888888844e+00  1.1266666666666609e+00  1.1366666666666598e+00  1.1488888888888813e+00  1.1633333333333249e+00  1.1799999999999904e+00  1.1988888888888780e+00  1.2199999999999880e+00  1.2433333333333203e+00  1.2688888888888759e+00  1.2966666666666535e+00  1.3266666666666533e+00  1.3588888888888766e+00  1.3933333333333207e+00  1.4299999999999877e+00  1.4688888888888763e+00  1.5099999999999876e+00  1.5533333333333215e+00  1.5988888888888779e+00  1.6466666666666570e+00  1.6966666666666579e+00  1.7488888888888801e+00  1.8033333333333252e+00  1.8599999999999930e+00  1.9188888888888833e+00  1.9799999999999958e+00  2.0433333333333312e+00  2.1088888888888890e+00  1.1422222222222222e+00  1.1433333333333315e+00  1.1466666666666634e+00  1.1522222222222172e+00  1.1599999999999937e+00  1.1699999999999924e+00  1.1822222222222136e+00  1.1966666666666572e+00  1.2133333333333227e+00  1.2322222222222101e+00  1.2533333333333199e+00  1.2766666666666524e+00  1.3022222222222082e+00  1.3299999999999856e+00  1.3599999999999857e+00  1.3922222222222083e+00  1.4266666666666528e+00  1.4633333333333196e+00  1.5022222222222088e+00  1.5433333333333201e+00  1.5866666666666542e+00  1.6322222222222107e+00  1.6799999999999897e+00  1.7299999999999907e+00  1.7822222222222130e+00  1.8366666666666580e+00  1.8933333333333260e+00  1.9522222222222163e+00  2.0133333333333292e+00  2.0766666666666649e+00  2.1422222222222222e+00  1.1799999999999999e+00  1.1811111111111094e+00  1.1844444444444406e+00  1.1899999999999946e+00  1.1977777777777709e+00  1.2077777777777696e+00  1.2199999999999904e+00  1.2344444444444340e+00  1.2511111111110995e+00  1.2699999999999871e+00  1.2911111111110971e+00  1.3144444444444296e+00  1.3399999999999852e+00  1.3677777777777627e+00  1.3977777777777622e+00  1.4299999999999844e+00  1.4644444444444293e+00  1.5011111111110962e+00  1.5399999999999856e+00  1.5811111111110971e+00  1.6244444444444315e+00  1.6699999999999877e+00  1.7177777777777667e+00  1.7677777777777681e+00  1.8199999999999903e+00  1.8744444444444357e+00  1.9311111111111035e+00  1.9899999999999938e+00  2.0511111111111071e+00  2.1144444444444428e+00  2.1800000000000002e+00  1.2222222222222223e+00  1.2233333333333314e+00  1.2266666666666628e+00  1.2322222222222166e+00  1.2399999999999927e+00  1.2499999999999909e+00  1.2622222222222119e+00  1.2766666666666551e+00  1.2933333333333208e+00  1.3122222222222089e+00  1.3333333333333184e+00  1.3566666666666511e+00  1.3822222222222069e+00  1.4099999999999842e+00  1.4399999999999837e+00  1.4722222222222059e+00  1.5066666666666508e+00  1.5433333333333177e+00  1.5822222222222069e+00  1.6233333333333184e+00  1.6666666666666530e+00  1.7122222222222092e+00  1.7599999999999880e+00  1.8099999999999894e+00  1.8622222222222122e+00  1.9166666666666574e+00  1.9733333333333254e+00  2.0322222222222162e+00  2.0933333333333293e+00  2.1566666666666645e+00  2.2222222222222223e+00  1.2688888888888887e+00  1.2699999999999974e+00  1.2733333333333292e+00  1.2788888888888830e+00  1.2866666666666589e+00  1.2966666666666571e+00  1.3088888888888777e+00  1.3233333333333208e+00  1.3399999999999861e+00  1.3588888888888744e+00  1.3799999999999844e+00  1.4033333333333173e+00  1.4288888888888727e+00  1.4566666666666501e+00  1.4866666666666495e+00  1.5188888888888714e+00  1.5533333333333164e+00  1.5899999999999832e+00  1.6288888888888726e+00  1.6699999999999846e+00  1.7133333333333185e+00  1.7588888888888750e+00  1.8066666666666535e+00  1.8566666666666551e+00  1.9088888888888780e+00  1.9633333333333232e+00  2.0199999999999907e+00  2.0788888888888821e+00  2.1399999999999952e+00  2.2033333333333305e+00  2.2688888888888887e+00  1.3200000000000001e+00  1.3211111111111085e+00  1.3244444444444405e+00  1.3299999999999939e+00  1.3377777777777697e+00  1.3477777777777677e+00  1.3599999999999883e+00  1.3744444444444315e+00  1.3911111111110972e+00  1.4099999999999850e+00  1.4311111111110955e+00  1.4544444444444280e+00  1.4799999999999838e+00  1.5077777777777610e+00  1.5377777777777606e+00  1.5699999999999827e+00  1.6044444444444275e+00  1.6411111111110945e+00  1.6799999999999840e+00  1.7211111111110955e+00  1.7644444444444298e+00  1.8099999999999863e+00  1.8577777777777651e+00  1.9077777777777669e+00  1.9599999999999893e+00  2.0144444444444347e+00  2.0711111111111027e+00  2.1299999999999937e+00  2.1911111111111063e+00  2.2544444444444411e+00  2.3200000000000003e+00  1.3755555555555556e+00  1.3766666666666627e+00  1.3799999999999957e+00  1.3855555555555497e+00  1.3933333333333255e+00  1.4033333333333233e+00  1.4155555555555435e+00  1.4299999999999866e+00  1.4466666666666521e+00  1.4655555555555404e+00  1.4866666666666506e+00  1.5099999999999829e+00  1.5355555555555387e+00  1.5633333333333170e+00  1.5933333333333168e+00  1.6255555555555390e+00  1.6599999999999830e+00  1.6966666666666503e+00  1.7355555555555400e+00  1.7766666666666520e+00  1.8199999999999863e+00  1.8655555555555423e+00  1.9133333333333211e+00  1.9633333333333229e+00  2.0155555555555451e+00  2.0699999999999901e+00  2.1266666666666580e+00  2.1855555555555486e+00  2.2466666666666621e+00  2.3099999999999974e+00  2.3755555555555556e+00  1.4355555555555557e+00  1.4366666666666643e+00  1.4399999999999964e+00  1.4455555555555502e+00  1.4533333333333258e+00  1.4633333333333234e+00  1.4755555555555437e+00  1.4899999999999864e+00  1.5066666666666524e+00  1.5255555555555400e+00  1.5466666666666506e+00  1.5699999999999830e+00  1.5955555555555390e+00  1.6233333333333173e+00  1.6533333333333176e+00  1.6855555555555397e+00  1.7199999999999849e+00  1.7566666666666513e+00  1.7955555555555405e+00  1.8366666666666525e+00  1.8799999999999868e+00  1.9255555555555430e+00  1.9733333333333218e+00  2.0233333333333228e+00  2.0755555555555456e+00  2.1299999999999906e+00  2.1866666666666585e+00  2.2455555555555491e+00  2.3066666666666622e+00  2.3699999999999979e+00  2.4355555555555557e+00  1.5000000000000000e+00  1.5011111111111091e+00  1.5044444444444407e+00  1.5099999999999945e+00  1.5177777777777708e+00  1.5277777777777677e+00  1.5399999999999880e+00  1.5544444444444312e+00  1.5711111111110969e+00  1.5899999999999850e+00  1.6111111111110952e+00  1.6344444444444277e+00  1.6599999999999837e+00  1.6877777777777621e+00  1.7177777777777623e+00  1.7499999999999847e+00  1.7844444444444292e+00  1.8211111111110962e+00  1.8599999999999852e+00  1.9011111111110972e+00  1.9444444444444318e+00  1.9899999999999882e+00  2.0377777777777664e+00  2.0877777777777675e+00  2.1399999999999904e+00  2.1944444444444353e+00  2.2511111111111033e+00  2.3099999999999938e+00  2.3711111111111065e+00  2.4344444444444422e+00  2.5000000000000000e+00  1.5688888888888890e+00  1.5699999999999978e+00  1.5733333333333295e+00  1.5788888888888828e+00  1.5866666666666593e+00  1.5966666666666569e+00  1.6088888888888773e+00  1.6233333333333204e+00  1.6399999999999861e+00  1.6588888888888744e+00  1.6799999999999846e+00  1.7033333333333172e+00  1.7288888888888732e+00  1.7566666666666513e+00  1.7866666666666515e+00  1.8188888888888739e+00  1.8533333333333188e+00  1.8899999999999855e+00  1.9288888888888742e+00  1.9699999999999871e+00  2.0133333333333217e+00  2.0588888888888777e+00  2.1066666666666567e+00  2.1566666666666574e+00  2.2088888888888798e+00  2.2633333333333248e+00  2.3199999999999923e+00  2.3788888888888828e+00  2.4399999999999959e+00  2.5033333333333316e+00  2.5688888888888890e+00  1.6422222222222222e+00  1.6433333333333311e+00  1.6466666666666629e+00  1.6522222222222163e+00  1.6599999999999926e+00  1.6699999999999895e+00  1.6822222222222105e+00  1.6966666666666539e+00  1.7133333333333194e+00  1.7322222222222079e+00  1.7533333333333188e+00  1.7766666666666511e+00  1.8022222222222073e+00  1.8299999999999852e+00  1.8599999999999854e+00  1.8922222222222080e+00  1.9266666666666532e+00  1.9633333333333196e+00  2.0022222222222088e+00  2.0433333333333210e+00  2.0866666666666553e+00  2.1322222222222118e+00  2.1799999999999908e+00  2.2299999999999915e+00  2.2822222222222135e+00  2.3366666666666585e+00  2.3933333333333260e+00  2.4522222222222165e+00  2.5133333333333296e+00  2.5766666666666649e+00  2.6422222222222222e+00  1.7200000000000000e+00  1.7211111111111090e+00  1.7244444444444404e+00  1.7299999999999940e+00  1.7377777777777699e+00  1.7477777777777674e+00  1.7599999999999887e+00  1.7744444444444318e+00  1.7911111111110976e+00  1.8099999999999856e+00  1.8311111111110963e+00  1.8544444444444292e+00  1.8799999999999855e+00  1.9077777777777640e+00  1.9377777777777638e+00  1.9699999999999862e+00  2.0044444444444314e+00  2.0411111111110980e+00  2.0799999999999881e+00  2.1211111111110994e+00  2.1644444444444337e+00  2.2099999999999906e+00  2.2577777777777692e+00  2.3077777777777699e+00  2.3599999999999919e+00  2.4144444444444368e+00  2.4711111111111044e+00  2.5299999999999945e+00  2.5911111111111071e+00  2.6544444444444424e+00  2.7199999999999998e+00  1.8022222222222222e+00  1.8033333333333306e+00  1.8066666666666624e+00  1.8122222222222160e+00  1.8199999999999921e+00  1.8299999999999899e+00  1.8422222222222111e+00  1.8566666666666540e+00  1.8733333333333200e+00  1.8922222222222083e+00  1.9133333333333189e+00  1.9366666666666517e+00  1.9622222222222079e+00  1.9899999999999860e+00  2.0199999999999863e+00  2.0522222222222091e+00  2.0866666666666540e+00  2.1233333333333215e+00  2.1622222222222116e+00  2.2033333333333229e+00  2.2466666666666564e+00  2.2922222222222133e+00  2.3399999999999923e+00  2.3899999999999930e+00  2.4422222222222145e+00  2.4966666666666590e+00  2.5533333333333266e+00  2.6122222222222167e+00  2.6733333333333289e+00  2.7366666666666641e+00  2.8022222222222224e+00  1.8888888888888888e+00  1.8899999999999977e+00  1.8933333333333289e+00  1.8988888888888824e+00  1.9066666666666587e+00  1.9166666666666563e+00  1.9288888888888780e+00  1.9433333333333214e+00  1.9599999999999873e+00  1.9788888888888754e+00  1.9999999999999862e+00  2.0233333333333192e+00  2.0488888888888752e+00  2.0766666666666542e+00  2.1066666666666540e+00  2.1388888888888764e+00  2.1733333333333213e+00  2.2099999999999893e+00  2.2488888888888794e+00  2.2899999999999903e+00  2.3333333333333242e+00  2.3788888888888819e+00  2.4266666666666610e+00  2.4766666666666608e+00  2.5288888888888823e+00  2.5833333333333273e+00  2.6399999999999944e+00  2.6988888888888845e+00  2.7599999999999962e+00  2.8233333333333306e+00  2.8888888888888888e+00  1.9800000000000000e+00  1.9811111111111086e+00  1.9844444444444400e+00  1.9899999999999938e+00  1.9977777777777701e+00  2.0077777777777679e+00  2.0199999999999898e+00  2.0344444444444338e+00  2.0511111111110987e+00  2.0699999999999874e+00  2.0911111111110987e+00  2.1144444444444312e+00  2.1399999999999872e+00  2.1677777777777663e+00  2.1977777777777665e+00  2.2299999999999880e+00  2.2644444444444334e+00  2.3011111111111022e+00  2.3399999999999923e+00  2.3811111111111036e+00  2.4244444444444380e+00  2.4699999999999940e+00  2.5177777777777721e+00  2.5677777777777724e+00  2.6199999999999948e+00  2.6744444444444393e+00  2.7311111111111064e+00  2.7899999999999956e+00  2.8511111111111083e+00  2.9144444444444431e+00  2.9800000000000000e+00  2.0755555555555554e+00  2.0766666666666636e+00  2.0799999999999952e+00  2.0855555555555498e+00  2.0933333333333257e+00  2.1033333333333237e+00  2.1155555555555461e+00  2.1299999999999901e+00  2.1466666666666563e+00  2.1655555555555450e+00  2.1866666666666559e+00  2.2099999999999880e+00  2.2355555555555435e+00  2.2633333333333225e+00  2.2933333333333232e+00  2.3255555555555456e+00  2.3599999999999905e+00  2.3966666666666585e+00  2.4355555555555486e+00  2.4766666666666604e+00  2.5199999999999942e+00  2.5655555555555503e+00  2.6133333333333280e+00  2.6633333333333282e+00  2.7155555555555515e+00  2.7699999999999956e+00  2.8266666666666627e+00  2.8855555555555523e+00  2.9466666666666641e+00  3.0099999999999989e+00  3.0755555555555554e+00  2.1755555555555555e+00  2.1766666666666641e+00  2.1799999999999962e+00  2.1855555555555504e+00  2.1933333333333258e+00  2.2033333333333243e+00  2.2155555555555471e+00  2.2299999999999911e+00  2.2466666666666573e+00  2.2655555555555460e+00  2.2866666666666573e+00  2.3099999999999898e+00  2.3355555555555449e+00  2.3633333333333235e+00  2.3933333333333242e+00  2.4255555555555466e+00  2.4599999999999915e+00  2.4966666666666590e+00  2.5355555555555487e+00  2.5766666666666609e+00  2.6199999999999948e+00  2.6655555555555512e+00  2.7133333333333285e+00  2.7633333333333288e+00  2.8155555555555520e+00  2.8699999999999961e+00  2.9266666666666632e+00  2.9855555555555529e+00  3.0466666666666651e+00  3.1099999999999994e+00  3.1755555555555555e+00  2.2800000000000002e+00  2.2811111111111093e+00  2.2844444444444409e+00  2.2899999999999947e+00  2.2977777777777710e+00  2.3077777777777695e+00  2.3199999999999923e+00  2.3344444444444363e+00  2.3511111111111025e+00  2.3699999999999917e+00  2.3911111111111021e+00  2.4144444444444346e+00  2.4399999999999906e+00  2.4677777777777687e+00  2.4977777777777690e+00  2.5299999999999914e+00  2.5644444444444363e+00  2.6011111111111034e+00  2.6399999999999935e+00  2.6811111111111052e+00  2.7244444444444391e+00  2.7699999999999947e+00  2.8177777777777733e+00  2.8677777777777735e+00  2.9199999999999959e+00  2.9744444444444396e+00  3.0311111111111075e+00  3.0899999999999967e+00  3.1511111111111090e+00  3.2144444444444438e+00  3.2800000000000002e+00  2.3888888888888893e+00  2.3899999999999983e+00  2.3933333333333300e+00  2.3988888888888842e+00  2.4066666666666610e+00  2.4166666666666599e+00  2.4288888888888822e+00  2.4433333333333258e+00  2.4599999999999924e+00  2.4788888888888811e+00  2.4999999999999925e+00  2.5233333333333250e+00  2.5488888888888805e+00  2.5766666666666582e+00  2.6066666666666589e+00  2.6388888888888808e+00  2.6733333333333253e+00  2.7099999999999924e+00  2.7488888888888825e+00  2.7899999999999943e+00  2.8333333333333282e+00  2.8788888888888851e+00  2.9266666666666632e+00  2.9766666666666626e+00  3.0288888888888850e+00  3.0833333333333299e+00  3.1399999999999970e+00  3.1988888888888867e+00  3.2599999999999985e+00  3.3233333333333319e+00  3.3888888888888893e+00  2.5022222222222226e+00  2.5033333333333316e+00  2.5066666666666637e+00  2.5122222222222179e+00  2.5199999999999951e+00  2.5299999999999940e+00  2.5422222222222155e+00  2.5566666666666600e+00  2.5733333333333266e+00  2.5922222222222149e+00  2.6133333333333257e+00  2.6366666666666587e+00  2.6622222222222147e+00  2.6899999999999933e+00  2.7199999999999931e+00  2.7522222222222150e+00  2.7866666666666595e+00  2.8233333333333275e+00  2.8622222222222162e+00  2.9033333333333284e+00  2.9466666666666623e+00  2.9922222222222192e+00  3.0399999999999974e+00  3.0899999999999972e+0